% Model:              0.5mm Simulation.mph
% Version:            COMSOL 6.2.0.339
% Date:               Dec 29 2024, 11:57
% Dimension:          1
% Nodes:              11692
% Expressions:        1
% Description:        Line graph
% Arc length (mm)         Electric potential
0                         7.152606141457522E-9
1.909067488981009E-6      7.152641559264287E-9
0.003313467338971421      7.213284564539135E-9
0.00472530429067497       7.239138868975416E-9
0.00738040731095424       7.288948832190291E-9
0.009922182065487561      7.338718097245327E-9
0.01099694858053013       7.358839617229537E-9
0.012738312006556285      7.391441004122584E-9
0.014760825200529126      7.430280860323E-9
0.019842455063486142      7.532253934157792E-9
0.01998759080283463       7.535031590720472E-9
0.020751319722434047      7.549648091488297E-9
0.021256949572734385      7.559585757628146E-9
0.022141243090096907      7.576965692258122E-9
0.024569739526498324      7.626895942828182E-9
0.02873170619776033       7.710083105930279E-9
0.028764327438313586      7.710735121833543E-9
0.02876715501445659       7.710792930127538E-9
0.028821158105584388      7.71189699467274E-9
0.029521660979670017      7.725971711751236E-9
0.029762728061484722      7.731044429651582E-9
0.031458978724472786      7.765165988027269E-9
0.036777335154193125      7.872149356310607E-9
0.03690144980817678       7.874625084341483E-9
0.03717395247228339       7.880425934199123E-9
0.039644224193727595      7.931815111663983E-9
0.04424464952177232       8.027379581767487E-9
0.04746508452405962       8.09875668315638E-9
0.0485709460717203        8.12231697986606E-9
0.04943210857347502       8.140663981893128E-9
0.0515878492353643        8.186511194381093E-9
0.058063135978942526      8.333651949527729E-9
0.05809556756149625       8.33437586681755E-9
0.058152833893920786      8.335654129699103E-9
0.05893104894895629       8.352316435422479E-9
0.05921999295322067       8.358926925634316E-9
0.06054653033006474       8.389267652046769E-9
0.06063967616534072       8.3913980950738E-9
0.06627424866255005       8.517303866346056E-9
0.06872449594202656       8.575788441048802E-9
0.0688405832637855        8.578559311441458E-9
0.06900787733296632       8.5823912481915E-9
0.07082754475478836       8.624050238609103E-9
0.07095358000957397       8.626891847955032E-9
0.07361744837614381       8.686951814983177E-9
0.07362728299588461       8.687211357373292E-9
0.07379096291630383       8.691530983233842E-9
0.07555944819896787       8.728318715907702E-9
0.0761721931668582        8.74318951214699E-9
0.0767358625824226        8.75806716456753E-9
0.07790696464293134       8.789357300289933E-9
0.07909002786601071       8.816765893119093E-9
0.07968305743575499       8.830504893449486E-9
0.07985427678869961       8.83507349837997E-9
0.07990362783790239       8.836404525888022E-9
0.08038545018929355       8.849399564778961E-9
0.08079154804467592       8.859448915115496E-9
0.08102106466157544       8.865643252711198E-9
0.08230443902786533       8.89284711621977E-9
0.0829726909949784        8.907012145364956E-9
0.08380666667254211       8.924891024113487E-9
0.08456468887038149       8.943894636044073E-9
0.08541090292249187       8.965109217229558E-9
0.08609110520125718       8.983670695488493E-9
0.08750432058642588       9.02267690828493E-9
0.08793027590932923       9.032856562314223E-9
0.08825116640684527       9.041714768644848E-9
0.08838096063727008       9.04452337497913E-9
0.08920951940753241       9.062452487874946E-9
0.09003025780030782       9.080408753632752E-9
0.09205388514611634       9.129321725941013E-9
0.0923279336138112        9.136981145018297E-9
0.09314965696410837       9.160188899645755E-9
0.09317811353803407       9.160992592500464E-9
0.094649612678122         9.199124654960688E-9
0.09489759834377942       9.206129126311652E-9
0.0954463478200882        9.221628812454664E-9
0.0954812681521151        9.222621056566342E-9
0.09594661859948772       9.232973620866636E-9
0.09617749438290346       9.238109871205876E-9
0.09619393750043592       9.23854108244192E-9
0.09710167652991508       9.262346012871369E-9
0.09856476202636522       9.295072226960994E-9
0.09926896755593795       9.310864883271984E-9
0.10030110361969058       9.336518532417847E-9
0.101683176232644         9.376579795168304E-9
0.10205706333983322       9.387444467191417E-9
0.10271136989738494       9.406457762952852E-9
0.10621794515933303       9.499914414612511E-9
0.10644944435496484       9.50589717155178E-9
0.11011417218050212       9.603375990973414E-9
0.11023696670004668       9.606669212792363E-9
0.11357751719163645       9.696133007224376E-9
0.11371438472463069       9.699798477591276E-9
0.11756859742090953       9.805129735295362E-9
0.11768492907100203       9.808335034959467E-9
0.12086065542738211       9.895692232048225E-9
0.12097932509429477       9.898956571703952E-9
0.1250230226613187        1.0012478502765542E-8
0.12513289144196094       1.0015588322962032E-8
0.12814166299030383       1.0100591336682234E-8
0.12824426546395884       1.0103490034484882E-8
0.1324774479017261        1.022554492003689E-8
0.13258085381291806       1.022855124939643E-8
0.13542080795762423       1.0310943736458049E-8
0.13550920583362291       1.0313508327463168E-8
0.1399318731421335        1.0444441665803583E-8
0.1400288161838752        1.044733606717179E-8
0.1426983152447896        1.0526853000302796E-8
0.142774146203287         1.052911179310192E-8
0.1473862983825427        1.0669271470801032E-8
0.14747677855483232       1.0672045109509992E-8
0.14997437495592614       1.0748412996651752E-8
0.15003908657295284       1.075039165479829E-8
0.15484072362295365       1.0900127117805897E-8
0.154924740925793         1.0902770789945696E-8
0.15724914886785513       1.097570800674742E-8
0.15730402694261514       1.0977430016883439E-8
0.16229514886335927       1.1137091441636057E-8
0.16237270329674836       1.1139595602326302E-8
0.16452277551689676       1.1208812813524219E-8
0.1645689673122792        1.1210299864622568E-8
0.16974957410376845       1.1380237329150643E-8
0.16982066566770726       1.1382592120811989E-8
0.17179537422753555       1.1447792772003676E-8
0.1718339076819433        1.1449065064214874E-8
0.17720399934417586       1.1629627719250013E-8
0.17730492306233003       1.1633110172148325E-8
0.17969292465734554       1.171355827505705E-8
0.1803006835930283        1.1734552048752753E-8
0.18464539005890046       1.1884630935238058E-8
0.18552978530730968       1.191557726590168E-8
0.18689845736643917       1.1963480045598598E-8
0.18761565657542434       1.198896493195935E-8
0.19210126357993929       1.21483560513818E-8
0.1928873926896344        1.2176653612858596E-8
0.19410399007552748       1.222043312492035E-8
0.19493486021336714       1.2250823811410498E-8
0.1995571371009781        1.2419892551956811E-8
0.2002450000719591        1.2445379026034269E-8
0.20130952278461933       1.2484789757260985E-8
0.2022603431701544        1.2520602665875364E-8
0.20701301062201694       1.2699613179025102E-8
0.2076026074542856        1.2722107209805668E-8
0.2085150554937094        1.2756874198605604E-8
0.20959573144691923       1.2798795923427221E-8
0.21446888414305576       1.2987835908757443E-8
0.2149602148366121        1.3007139763080833E-8
0.21572058820280127       1.3036962716685713E-8
0.2169481082950533        1.3086003067314684E-8
0.2219247576640928        1.3284823951433366E-8
0.22231782221893504       1.3300726179298874E-8
0.22292612091188957       1.332528359097923E-8
0.22433342421228097       1.3383172114021492E-8
0.2293806311851352        1.3590785751441157E-8
0.2296754296012633        1.3603063846429969E-8
0.2301316536209832        1.3622017112710482E-8
0.23179669344673925       1.3692508561365239E-8
0.23683650470617224       1.390587498727786E-8
0.23703303698358802       1.391429804697537E-8
0.23733718633007328       1.3927295584850218E-8
0.23953357493728156       1.4022947165396834E-8
0.24429237822721106       1.423019057154928E-8
0.24439064436591096       1.4234521957967402E-8
0.24454271903916158       1.424120332211558E-8
0.25174825174825344       1.4563776650970054E-8
0.25680029215265776       1.4779279286304464E-8
0.2589421938010261        1.4880818876606318E-8
0.2615753669156824        1.5003637898460232E-8
0.2618523325570674        1.501575976202461E-8
0.2621453628613786        1.502998652523907E-8
0.2661045222301581        1.521542063376455E-8
0.266136135853813         1.52169013127607E-8
0.26690437296147884       1.525227461077867E-8
0.26871639122619584       1.5344449691349674E-8
0.27140248208310425       1.5475577889960302E-8
0.2715698582816586        1.5483251647708834E-8
0.2719564133658867        1.550097417993519E-8
0.2721537280974893        1.5510974881093714E-8
0.27254247397452147       1.5530678079690486E-8
0.27333007790659813       1.5569235677003995E-8
0.27700845377029637       1.57464266114135E-8
0.2777138110998685        1.5783880058926036E-8
0.27859635249307857       1.5830741722316268E-8
0.28052401995938325       1.5930338798706177E-8
0.2812295972505261        1.596611865008804E-8
0.2819963327659458        1.6002708915642693E-8
0.282060494174706         1.600577083587167E-8
0.2828608434373443        1.6047980769674122E-8
0.2829395850876626        1.6052133556466854E-8
0.28568453070412403       1.61919153690516E-8
0.2871125345791139        1.6261506283693858E-8
0.28771796201216837       1.629407035949417E-8
0.29105671241794795       1.6470611117834837E-8
0.29159879937941824       1.6497571906691197E-8
0.29216457498352355       1.6525710854289146E-8
0.29276875795831003       1.655888304892512E-8
0.2933366962008037        1.6590065254825477E-8
0.29491190406495527       1.667369465693931E-8
0.297216615387935         1.6793884740272776E-8
0.29985979133922314       1.6945921647485018E-8
0.3008838275853698        1.7004824765024947E-8
0.3021058461177404        1.7071051760779788E-8
0.30226865579234286       1.707971692075341E-8
0.30247351703686753       1.7091728597272022E-8
0.30498995498411574       1.723007803155133E-8
0.3072780077731423        1.7351141786748765E-8
0.3079148929510964        1.7387569483194966E-8
0.3098088289031544        1.7496917532613815E-8
0.3115255584807244        1.7596034416942745E-8
0.31228735975394173       1.7637088111017273E-8
0.3132313181637656        1.7692212209812184E-8
0.31431861050030463       1.775416761493887E-8
0.31507648524301857       1.7800362093218017E-8
0.31885207700734597       1.802917120294731E-8
0.3197224924575419        1.80788768375795E-8
0.32064898721251467       1.8131784917013086E-8
0.32155877763110396       1.8188912304893857E-8
0.3220092896014428        1.821720076732283E-8
0.3228947217904441        1.826959237216851E-8
0.32498967336575646       1.8392910980391964E-8
0.32573871565914914       1.8436193014276918E-8
0.3269793639247247        1.850788159680905E-8
0.33071295833786607       1.87456240158861E-8
0.33261688521926125       1.8865953778358705E-8
0.3331319072056349        1.889850359626079E-8
0.3333097406369312        1.890907700788979E-8
0.3335446521611054        1.89244756952233E-8
0.3385311948852916        1.9232558385609257E-8
0.33964011734914124       1.9300599115059546E-8
0.3407971576565032        1.9378795749018194E-8
0.34425452480982344       1.9612456125436054E-8
0.34435823445577185       1.9619051712574168E-8
0.34597049406134595       1.972077533150622E-8
0.3463494314327118        1.974707587362145E-8
0.3482372273148613        1.9877602147952926E-8
0.35130602549408607       2.007772524815101E-8
0.3523008707735542        2.0141415540272724E-8
0.35416766798013555       2.0272974366152852E-8
0.3553771424140155        2.0357703440073503E-8
0.3566713206662939        2.0443066972575976E-8
0.35863124748576425       2.057234304135678E-8
0.3619859045275575        2.0816015354634822E-8
0.36292980246861717       2.0884247180466262E-8
0.3630238169269475        2.0890652916022785E-8
0.36496162419797074       2.1022686660173232E-8
0.3651897069645429        2.1039786829301606E-8
0.36649976001820406       2.1138006125399035E-8
0.3698041410749795        2.1371275541983856E-8
0.371292000910179         2.1475898945859643E-8
0.3776223776223837        2.1965852158681255E-8
0.38319188620948097       2.235562232053678E-8
0.3846975358916289        2.2471729073102838E-8
0.38725841140715644       2.267782601122436E-8
0.38876139479657823       2.27965852724292E-8
0.39081987924871875       2.2974615857299058E-8
0.3910461079619907        2.2992043581990156E-8
0.39177269416088834       2.3048016778564575E-8
0.3927183971025645        2.3124053064953364E-8
0.39287379481985596       2.3136547332249542E-8
0.39433090338367904       2.324400199836136E-8
0.39596976508589776       2.337670857753294E-8
0.39689444519193273       2.3451584409662982E-8
0.3988478524301442        2.3607054034082083E-8
0.39990041197077275       2.3694290907523325E-8
0.4037939068982066        2.4046805390285125E-8
0.40401738087505734       2.4066246431461574E-8
0.40546992055787356       2.417841412067806E-8
0.40592301069940007       2.4216611201798906E-8
0.4065304789767037        2.4270022242807916E-8
0.408125212017346         2.4408408269395302E-8
0.4110394291449726        2.4640457903862966E-8
0.4129981689686595        2.4811286194870777E-8
0.4161665127614782        2.509888391536349E-8
0.41660893773206986       2.5138399629368794E-8
0.41721488250139416       2.5197451585950942E-8
0.4185130341478267        2.5310440148054726E-8
0.42007332723791535       2.5446244985027475E-8
0.4221784463191689        2.563708814845369E-8
0.423376629214836         2.5755328257546092E-8
0.4258025465462527        2.5976339581757547E-8
0.427148485507173         2.6097082380963985E-8
0.42774795490626616       2.6152993673644393E-8
0.4299654361739993        2.6379033122623575E-8
0.4304123841277345        2.642276435496836E-8
0.4333174634933634        2.6675624901955976E-8
0.43587747344542294       2.6942385969489504E-8
0.43602863712639106       2.695608788186425E-8
0.4363348508885849        2.6985048052088994E-8
0.4382474676785524        2.7154509749926304E-8
0.4387536315643441        2.7201136275677487E-8
0.4409790133588931        2.7427171496376146E-8
0.44207733770108604       2.7538729875120198E-8
0.443177471863736         2.763774511545475E-8
0.4438148332564733        2.769721661577493E-8
0.4449883352002679        2.781142117020425E-8
0.44614903818973417       2.7935199388751024E-8
0.44750735726388413       2.8080051531583733E-8
0.448107476048925         2.8135653306419727E-8
0.4512230388361935        2.8435817655072255E-8
0.451414319729567         2.8456044863793874E-8
0.45160102938655733       2.8475788682090114E-8
0.4530374802341086        2.8633203349125197E-8
0.4555169034755657        2.891530600925803E-8
0.45698770437248903       2.9064741012706245E-8
0.4574577424721209        2.9112497405285333E-8
0.4579674844192958        2.916907879245436E-8
0.4591372410823453        2.9303779543092695E-8
0.4593872255166431        2.932893720720055E-8
0.45989362145531487       2.938194266002508E-8
0.462897488604483         2.967659936188089E-8
0.4636924461080465        2.9757843619375105E-8
0.46628276342245023       3.0048754250078306E-8
0.4671734216467289        3.014878135653544E-8
0.4678274927896702        3.022471800318633E-8
0.4689564692500454        3.036132052289038E-8
0.46905247293956265       3.037170044896445E-8
0.46992714974397387       3.046627057032358E-8
0.47009029771449207       3.0485582850125847E-8
0.4707671249008065        3.0565700769817756E-8
0.4727574969748556        3.077130252774214E-8
0.47484471974524567       3.099735487744685E-8
0.4749596177768147        3.100979867136318E-8
0.47616185337989947       3.11448357952062E-8
0.47768750116004277       3.133210055537971E-8
0.48239603502452333       3.193830447920648E-8
0.48239682497517045       3.1938395888256136E-8
0.4823998119504509        3.193874467627948E-8
0.4826783702126214        3.197127182382562E-8
0.48267891745027036       3.1971339024070024E-8
0.49071450479554457       3.2920276936920787E-8
0.49071931306207617       3.2920854439676467E-8
0.49105371351181226       3.2961018016293286E-8
0.49105438234859733       3.296109864408447E-8
0.4991277338664375        3.3953169738935626E-8
0.4991319855531149        3.395370011836975E-8
0.4994292527253421        3.399078290612251E-8
0.49942984724692785       3.399085729883999E-8
0.5075409629373304        3.5026885260861266E-8
0.5075446638043424        3.5027364241212626E-8
0.5078047919388737        3.506103101845877E-8
0.5078053121452601        3.506109850928416E-8
0.5159541920082233        3.6142657080625276E-8
0.5159573477373147        3.614308068040028E-8
0.5161803311523983        3.6173012186475964E-8
0.5161807770435871        3.61730721432478E-8
0.5243674210791127        3.730249890733776E-8
0.5243700372750002        3.730286324241912E-8
0.5245558703659263        3.732874261735706E-8
0.5245562419419159        3.732879441544503E-8
0.5327806501500056        3.8509204581291405E-8
0.5327827323417669        3.8509505673091214E-8
0.5329314095794544        3.8531004892294104E-8
0.5329317068402446        3.853104788747327E-8
0.5411938792208986        3.976634807396144E-8
0.5411954328633222        3.9766581662483205E-8
0.541306948792986         3.978334796648819E-8
0.5413071717385769        3.978338146781319E-8
0.5496071082917879        4.10782834880057E-8
0.5496081387666987        4.107844484968387E-8
0.5496824880065123        4.109008716914955E-8
0.5496826366369056        4.1090110411828803E-8
0.5580203373626791        4.245014505726452E-8
0.5580208499802382        4.2450228827454396E-8
0.5580580272200386        4.24563042034974E-8
0.5580581015352344        4.2456316321767324E-8
0.5664335664335667        4.3887847146759744E-8
0.5716753236127339        4.46507985136536E-8
0.5738348025272995        4.500776313173712E-8
0.5764937978207847        4.543819736537897E-8
0.5767709949238427        4.5480610267130465E-8
0.5769170807919011        4.550296232456883E-8
0.57721844405879          4.555473527552444E-8
0.5773775474161589        4.5582068568008654E-8
0.5812360386210358        4.6234165914383864E-8
0.5821588379710683        4.638646375196201E-8
0.5843987719131452        4.67970695320507E-8
0.586554029208008         4.7172320104254175E-8
0.5866826746512235        4.7193638099325693E-8
0.5874005951502337        4.731260559072784E-8
0.5875782863373367        4.7344977787808424E-8
0.5883215283987493        4.748038336915846E-8
0.5886372747147774        4.753728909017245E-8
0.5926423523294009        4.824441134433876E-8
0.5932911357672843        4.836949361409313E-8
0.5944359280161109        4.859020395366043E-8
0.596038510808512         4.889167870937318E-8
0.5966142605952296        4.899707541093651E-8
0.5977020668855904        4.9188244183012806E-8
0.5978841095085663        4.922023596777107E-8
0.5990235779875022        4.9438907450609084E-8
0.5992655093813344        4.9485335673602713E-8
0.6023639773927112        5.0074144615580846E-8
0.6031258666877335        5.0211267344978E-8
0.6034397469022501        5.027260364904301E-8
0.6066744919824529        5.088871330717629E-8
0.6072469492747388        5.099377573838305E-8
0.6083676238669025        5.119945186275273E-8
0.6090783881622865        5.134117800799335E-8
0.6102094903639248        5.15667193807834E-8
0.6108409829959882        5.1691662463108596E-8
0.6136093810460679        5.222394289988148E-8
0.6154980600990854        5.261788694811778E-8
0.6167347233696745        5.2875832380584426E-8
0.6182422190897263        5.318052574789629E-8
0.6188511382252351        5.329979252668885E-8
0.6194510236822346        5.3428501654938036E-8
0.6212900978970861        5.379360356516364E-8
0.6230714194244182        5.413611667294247E-8
0.6235787208213583        5.424493445446144E-8
0.6252074837464114        5.458946918353773E-8
0.6267424580247472        5.491416465578347E-8
0.6272917006236085        5.502136081404057E-8
0.6280464523750133        5.518573447324457E-8
0.6290008931530426        5.538095334433334E-8
0.6297458237710565        5.554482294650499E-8
0.6335507122160031        5.636208283009256E-8
0.6344142934286445        5.6540111586191845E-8
0.6353315730685072        5.672921036565781E-8
0.6362318838187573        5.693004237084888E-8
0.6366803763482878        5.70300874430574E-8
0.6375660573381374        5.7222552949561804E-8
0.6396615947115727        5.766591740667126E-8
0.6404088952108058        5.782355745292722E-8
0.6416622529839735        5.808794825360256E-8
0.6453862909052184        5.8938067608771976E-8
0.6473006771230203        5.9364305835497916E-8
0.6478058395401707        5.947678028338772E-8
0.6479929328994398        5.951732421529461E-8
0.6482399572389266        5.9575267705210904E-8
0.6532065244722993        6.069709310446935E-8
0.6543236128149061        6.094226874929277E-8
0.6554841704247689        6.12174107003018E-8
0.6589313027320554        6.203464777699034E-8
0.6590712959390892        6.206713469620504E-8
0.6606542927303725        6.242944104536065E-8
0.661026758039382         6.252157303907786E-8
0.66292920226185          6.297744493668717E-8
0.6659846435096384        6.368246068106984E-8
0.6669849726458388        6.391287830142667E-8
0.668846991606463         6.43752566342012E-8
0.6700567659239383        6.46660122295439E-8
0.6713508640865591        6.497146838580263E-8
0.6733156525613033        6.54352328456354E-8
0.6766672251735422        6.628802622171771E-8
0.6776184472847717        6.652120606701494E-8
0.677712461763706         6.654338571407045E-8
0.6796463324767696        6.699961937460389E-8
0.67987316026381          6.705709618539131E-8
0.6811822291158229        6.738880643877925E-8
0.6844874587406249        6.821816680848271E-8
0.685977012392236         6.857587634254227E-8
0.6923076923077023        7.020845599514355E-8
0.6986385495038228        7.182413203412897E-8
0.7001276145918283        7.222705180033061E-8
0.7034327110245044        7.316005704920695E-8
0.7049694066999432        7.355715325548675E-8
0.7069986668392012        7.411615943479208E-8
0.707188350348849         7.416554602928712E-8
0.7079475368759596        7.436321021859785E-8
0.7113002638960637        7.527498867163008E-8
0.7114522038699533        7.531894266031774E-8
0.7145577297413155        7.621732539347504E-8
0.7157674591600891        7.653789381357823E-8
0.7176311210921842        7.705343668957414E-8
0.7186297024356847        7.734828566883331E-8
0.7216896413706912        7.821862016231514E-8
0.7233680759212078        7.866843318375236E-8
0.7235873814442169        7.872720609205078E-8
0.7239619782883047        7.883165544095048E-8
0.7255546011663316        7.930561645279797E-8
0.7256827484581212        7.934409018845236E-8
0.7275296310799444        7.985384620750076E-8
0.7302928354844251        8.061651518299514E-8
0.7314073037283464        8.094745105303603E-8
0.7355930025827977        8.223287733396038E-8
0.7363806159021831        8.247475303862757E-8
0.7366236926805456        8.254509012491668E-8
0.7368077671749305        8.260222053128942E-8
0.7392272260124741        8.329160397627873E-8
0.7429545498766661        8.439506401755737E-8
0.7431905095046965        8.4469868431891E-8
0.7449517125636671        8.502820870581019E-8
0.7470471482966055        8.566901515715231E-8
0.747932785891738         8.59490529482551E-8
0.7492854070727848        8.634231659705448E-8
0.7510715904336749        8.689859269608727E-8
0.7535908205868029        8.763695404945117E-8
0.754867070580735         8.801101025530442E-8
0.755616264268907         8.823930044647561E-8
0.7566904740161036        8.857048420449805E-8
0.7576461367424692        8.888269720589693E-8
0.7584181028384656        8.913355435101383E-8
0.758732354930995         8.923411036911572E-8
0.7620214232698554        9.02865635533047E-8
0.7621604088216909        9.033265295102723E-8
0.7626562229874843        9.049707130949656E-8
0.7649359616750147        9.124518292759623E-8
0.7674752410532371        9.204416241011449E-8
0.7676663092324993        9.21034397417562E-8
0.7678180901590999        9.21534809684035E-8
0.7690402375342131        9.257177553980808E-8
0.7727178601274307        9.371570583115058E-8
0.7737536001196936        9.40607533074554E-8
0.7750129084480584        9.448028056703545E-8
0.7766070396850662        9.503357970992916E-8
0.7777694110223639        9.540900381883379E-8
0.7788685536637363        9.578811557186018E-8
0.7822077267370204        9.683095218117157E-8
0.7828209619172952        9.703177500153342E-8
0.7842663199404516        9.753644168048882E-8
0.787000734309256         9.85103822306033E-8
0.7878725128122284        9.879866943416392E-8
0.7886968697932595        9.909036259660423E-8
0.7894025450259807        9.931600381692366E-8
0.7913304771443457        9.996228890165913E-8
0.7929240637071597        1.0048294172768132E-7
0.7940382792339342        1.0087291902230794E-7
0.796597363314941         1.0176860272321717E-7
0.7973944289334476        1.0206124139809248E-7
0.7979756146020947        1.0225928639608249E-7
0.7985251859227809        1.0245961790423967E-7
0.798658947964606         1.0250356177706828E-7
0.8012240690611385        1.0334626239465301E-7
0.803027165497026         1.0395419965060818E-7
0.8037921816039013        1.0423235812432364E-7
0.8077122643623209        1.057237935898185E-7
0.8077881235576356        1.0575265499434711E-7
0.8080787163919592        1.0585500301056193E-7
0.8083535020523005        1.0595932494997688E-7
0.8109869998928616        1.0685960286139604E-7
0.8127725816177573        1.0750207658341977E-7
0.8131302672868888        1.076307761774838E-7
0.8181818181818237        1.0959132589666584E-7
0.8232337650042858        1.1128463195850733E-7
0.8253779484281623        1.120517811456897E-7
0.8280119286791994        1.1293595560827401E-7
0.8282857118267444        1.1303055310503168E-7
0.8285751824259968        1.1313654106808656E-7
0.832531995889914         1.1465263030885028E-7
0.8325740786745008        1.146687547123675E-7
0.8333376586492101        1.1494334239855948E-7
0.8351367423395128        1.1562246156081671E-7
0.8378420391765715        1.1657010194673268E-7
0.8380095858738201        1.1663094756080107E-7
0.8383896054716704        1.1676895401613039E-7
0.8385864988429468        1.1684356658016944E-7
0.8389685466701735        1.1698834325695781E-7
0.8397702089208394        1.1730635845650246E-7
0.8434415522941308        1.1867298872497483E-7
0.8441556826619099        1.1894908173210763E-7
0.8450380390844607        1.192902133364418E-7
0.846966339167178         1.2003205693384476E-7
0.8476721496739472        1.2028558365338803E-7
0.8484312884084808        1.2056970559439038E-7
0.8484934991165929        1.2059298912128213E-7
0.849285673339832         1.209005489968454E-7
0.8493619109143502        1.2093014806513614E-7
0.8520916664972038        1.2203989309894926E-7
0.8535454459390532        1.2259015574632642E-7
0.8541624694135148        1.228314887952517E-7
0.8575022601713229        1.2404961143730127E-7
0.8580423597658822        1.2425600064611014E-7
0.8585973927615171        1.244680963817593E-7
0.8591980650748638        1.247053460830481E-7
0.8597552751585251        1.2492542935135746E-7
0.8613585996598534        1.255900486956216E-7
0.8636493395839757        1.2647622344569086E-7
0.8663278361792788        1.2754842994789082E-7
0.8673323706686951        1.2795054672232513E-7
0.8685547299061938        1.2846346136212687E-7
0.8687012864064396        1.2852068492996235E-7
0.86888575886762          1.285961023298945E-7
0.8714354157497475        1.2957599988815366E-7
0.8737107787601595        1.304568196215671E-7
0.8743444685145292        1.3073053925777267E-7
0.8762384988495562        1.3151890581361678E-7
0.877943616112244         1.322286396541121E-7
0.8787202711138811        1.3253268019000208E-7
0.8796813127682341        1.329523475736352E-7
0.8807491070337701        1.3337046780215572E-7
0.8814941261512814        1.3368193723395998E-7
0.8852988193827773        1.3518280897060051E-7
0.8861624480642014        1.3552579365279557E-7
0.8870797907359886        1.3589011050738159E-7
0.8879801666812543        1.3625725791584993E-7
0.8884286732926174        1.3644014600932826E-7
0.8893143533893646        1.368177613727039E-7
0.8914098886720545        1.376568067965614E-7
0.892157202045734         1.3796533013448433E-7
0.8934104744382054        1.384827352759814E-7
0.8971345806274478        1.4006119112326156E-7
0.8990488978605704        1.4082574600876245E-7
0.8995541274452812        1.4102752852453743E-7
0.8997411581404222        1.411056839688389E-7
0.8999881005510701        1.4121170290904178E-7
0.904954807865531         1.43362954477997E-7
0.9060718418426426        1.4381716923979707E-7
0.9072323768381558        1.4430143242675693E-7
0.9106795815979485        1.4573986760495874E-7
0.9108193289911863        1.4580119764858067E-7
0.9124025255448558        1.4647921617626844E-7
0.9127750351036106        1.466428331346705E-7
0.9146773817193612        1.4742324003437382E-7
0.9177329163639953        1.4869116442744494E-7
0.9187332092470744        1.4912082626173245E-7
0.9205952623416955        1.4993911859289602E-7
0.921805035750614         1.5043834055150938E-7
0.923099135674132         1.5100045852445086E-7
0.9250638929492929        1.5185388982196072E-7
0.9284154895797769        1.533424659952159E-7
0.9293666628876558        1.5373744433353626E-7
0.9294606774847232        1.5377708628469016E-7
0.9313945766515079        1.5459252919139924E-7
0.9316214131695286        1.5469003409842246E-7
0.9329304899032778        1.5525273628731354E-7
0.9362357168178583        1.5675671353785123E-7
0.9377252603537283        1.573880111155591E-7
0.9440559440559468        1.6011959846584774E-7
0.9491075201554082        1.6237583316884863E-7
0.9512508457110513        1.633465723019223E-7
0.9538843741996992        1.644383126504541E-7
0.9541590962548678        1.64561871094378E-7
0.9544496178732853        1.6469429772864267E-7
0.9584068373717152        1.6663044402938228E-7
0.9584457473661523        1.6664948149794417E-7
0.9592106723543292        1.66993164820214E-7